 written on  3Feb2023 at 21:30:36 
    1.0000000000    0.0000000000    0.0000000000    0.0000000000    1.0000000000    0.0000000000    0.0000000000    0.0000000000    1.0000000000
    0.0000000000    0.0000000000    0.0000000000
    0.5000000000    0.5000000000    0.5000000000