 written on  30Jan2023 at 20:47:12 
    1.0000000000    0.0000000000    0.0000000000    0.0000000000    1.0000000000    0.0000000000    0.0000000000    0.0000000000    1.0000000000
    0.0000000000    0.0000000000    0.0000000000